<?xml version="1.0"?>
<VTKFile type="UnstructuredGrid" version="2.2">
  <UnstructuredGrid>
    <Piece NumberOfPoints="81" NumberOfCells="192">
      <Points>
        <DataArray type="Float64" NumberOfComponents="3" format="ascii">0 -7.5 0 7.5 -7.5 0 7.5 0 0 7.5 0 10 7.5 -7.5 10 0 0 0 7.5 7.5 0 7.5 7.5 10 0 -7.5 10 0 0 10 0 7.5 0 7.5 0 20 -7.499999999999999 -7.499999999999999 5.551115123125783e-16 0 7.5 10 7.5 -7.5 20 7.5 7.5 20 -7.499999999999999 4.163336342344337e-16 5.551115123125783e-16 0 -7.5 20 0 0 20 -7.499999999999999 -7.499999999999999 10 -7.499999999999999 4.163336342344337e-16 10 -7.5 7.5 0 7.5 0 30 0 7.5 20 -7.5 7.5 10 7.5 -7.5 30 7.5 7.5 30 0 -7.5 30 0 0 30 -7.499999999999999 -7.499999999999999 20 -7.499999999999999 4.163336342344337e-16 20 7.5 0 40 0 7.5 30 -7.5 7.5 20 7.5 -7.5 40 7.5 7.5 40 0 -7.5 40 0 0 40 -7.499999999999999 -7.499999999999999 30 -7.499999999999999 4.163336342344337e-16 30 7.5 0 50 0 7.5 40 -7.5 7.5 30 7.5 -7.5 50 7.5 7.5 50 0 -7.5 50 0 0 50 -7.499999999999999 -7.499999999999999 39.99999999999999 -7.499999999999999 4.163336342344337e-16 39.99999999999999 7.5 0 60 0 7.5 50 -7.5 7.5 40 7.5 -7.5 60 7.5 7.5 60 0 -7.5 60 0 0 60 -7.499999999999999 -7.499999999999999 49.99999999999999 -7.499999999999999 4.163336342344337e-16 49.99999999999999 7.5 0 70 0 7.5 60 -7.5 7.5 50 7.5 -7.5 70 7.5 7.5 70 0 -7.5 70 0 0 70 -7.499999999999999 -7.499999999999999 60 -7.499999999999999 4.163336342344337e-16 60 7.5 0 80 0 7.5 70 -7.5 7.5 60 7.5 -7.5 80 7.5 7.5 80 0 -7.5 80 0 0 80 -7.499999999999999 -7.499999999999999 69.99999999999999 -7.499999999999999 4.163336342344337e-16 69.99999999999999 -2.081668171172169e-16 7.5 80 -7.5 7.5 70 -7.500000000000001 -7.5 80.00000000000001 -7.500000000000001 8.326672684688674e-16 80.00000000000001 -7.5 7.5 80 </DataArray>
      </Points>
      <Cells>
        <DataArray type="Int32" Name="connectivity" format="ascii">0 1 2 3 0 1 3 4 0 2 5 3 5 2 6 7 0 4 3 8 5 2 7 3 0 5 9 3 5 6 10 7 8 4 3 11 0 9 8 3 5 3 7 9 12 0 5 9 5 10 13 7 8 4 11 14 8 3 9 11 12 0 9 8 9 3 7 15 5 13 9 7 12 5 16 9 16 5 10 13 8 14 11 17 9 3 15 11 8 9 18 11 12 8 9 19 9 7 13 15 16 5 13 9 12 16 20 9 16 10 21 13 17 14 11 22 8 18 17 11 9 11 15 18 19 8 9 18 12 20 19 9 9 13 23 15 16 9 13 20 16 21 24 13 17 14 22 25 17 11 18 22 19 8 18 17 18 11 15 26 9 23 18 15 19 9 20 18 20 9 13 23 16 24 20 13 17 25 22 27 18 11 26 22 17 18 28 22 19 17 18 29 18 15 23 26 20 9 23 18 19 20 30 18 20 13 24 23 27 25 22 31 17 28 27 22 18 22 26 28 29 17 18 28 19 30 29 18 18 23 32 26 20 18 23 30 20 24 33 23 27 25 31 34 27 22 28 31 29 17 28 27 28 22 26 35 18 32 28 26 29 18 30 28 30 18 23 32 20 33 30 23 27 34 31 36 28 22 35 31 27 28 37 31 29 27 28 38 28 26 32 35 30 18 32 28 29 30 39 28 30 23 33 32 36 34 31 40 27 37 36 31 28 31 35 37 38 27 28 37 29 39 38 28 28 32 41 35 30 28 32 39 30 33 42 32 36 34 40 43 36 31 37 40 38 27 37 36 37 31 35 44 28 41 37 35 38 28 39 37 39 28 32 41 30 42 39 32 36 43 40 45 37 31 44 40 36 37 46 40 38 36 37 47 37 35 41 44 39 28 41 37 38 39 48 37 39 32 42 41 45 43 40 49 36 46 45 40 37 40 44 46 47 36 37 46 38 48 47 37 37 41 50 44 39 37 41 48 39 42 51 41 45 43 49 52 45 40 46 49 47 36 46 45 46 40 44 53 37 50 46 44 47 37 48 46 48 37 41 50 39 51 48 41 45 52 49 54 46 40 53 49 45 46 55 49 47 45 46 56 46 44 50 53 48 37 50 46 47 48 57 46 48 41 51 50 54 52 49 58 45 55 54 49 46 49 53 55 56 45 46 55 47 57 56 46 46 50 59 53 48 46 50 57 48 51 60 50 54 52 58 61 54 49 55 58 56 45 55 54 55 49 53 62 46 59 55 53 56 46 57 55 57 46 50 59 48 60 57 50 54 61 58 63 55 49 62 58 54 55 64 58 56 54 55 65 55 53 59 62 57 46 59 55 56 57 66 55 57 50 60 59 63 61 58 67 54 64 63 58 55 58 62 64 65 54 55 64 56 66 65 55 55 59 68 62 57 55 59 66 57 60 69 59 63 61 67 70 63 58 64 67 65 54 64 63 64 58 62 71 55 68 64 62 65 55 66 64 66 55 59 68 57 69 66 59 63 70 67 72 64 58 71 67 63 64 73 67 65 63 64 74 64 62 68 71 66 55 68 64 65 66 75 64 66 59 69 68 63 73 72 67 64 67 71 73 74 63 64 73 65 75 74 64 64 68 76 71 66 64 68 75 66 69 77 68 74 63 73 72 64 76 73 71 74 64 75 73 75 64 68 76 66 77 75 68 74 72 73 78 75 64 76 73 74 75 79 73 75 68 77 76 74 79 78 73 75 73 76 79 75 77 80 76 75 80 79 76 </DataArray>
        <DataArray type="Int32" Name="offsets" format="ascii">4 8 12 16 20 24 28 32 36 40 44 48 52 56 60 64 68 72 76 80 84 88 92 96 100 104 108 112 116 120 124 128 132 136 140 144 148 152 156 160 164 168 172 176 180 184 188 192 196 200 204 208 212 216 220 224 228 232 236 240 244 248 252 256 260 264 268 272 276 280 284 288 292 296 300 304 308 312 316 320 324 328 332 336 340 344 348 352 356 360 364 368 372 376 380 384 388 392 396 400 404 408 412 416 420 424 428 432 436 440 444 448 452 456 460 464 468 472 476 480 484 488 492 496 500 504 508 512 516 520 524 528 532 536 540 544 548 552 556 560 564 568 572 576 580 584 588 592 596 600 604 608 612 616 620 624 628 632 636 640 644 648 652 656 660 664 668 672 676 680 684 688 692 696 700 704 708 712 716 720 724 728 732 736 740 744 748 752 756 760 764 768 </DataArray>
        <DataArray type="Int8" Name="types" format="ascii">71 71 71 71 71 71 71 71 71 71 71 71 71 71 71 71 71 71 71 71 71 71 71 71 71 71 71 71 71 71 71 71 71 71 71 71 71 71 71 71 71 71 71 71 71 71 71 71 71 71 71 71 71 71 71 71 71 71 71 71 71 71 71 71 71 71 71 71 71 71 71 71 71 71 71 71 71 71 71 71 71 71 71 71 71 71 71 71 71 71 71 71 71 71 71 71 71 71 71 71 71 71 71 71 71 71 71 71 71 71 71 71 71 71 71 71 71 71 71 71 71 71 71 71 71 71 71 71 71 71 71 71 71 71 71 71 71 71 71 71 71 71 71 71 71 71 71 71 71 71 71 71 71 71 71 71 71 71 71 71 71 71 71 71 71 71 71 71 71 71 71 71 71 71 71 71 71 71 71 71 71 71 71 71 71 71 71 71 71 71 71 71 </DataArray>
      </Cells>
      <CellData>
        <DataArray type="UInt8" Name="vtkGhostType" format="ascii" RangeMin="0" RangeMax="1">0 0 0 0 0 0 0 0 0 0 0 0 0 0 0 0 0 0 0 0 0 0 0 0 0 0 0 0 0 0 0 0 0 0 0 0 0 0 0 0 0 0 0 0 0 0 0 0 0 0 0 0 0 0 0 0 0 0 0 0 0 0 0 0 0 0 0 0 0 0 0 0 0 0 0 0 0 0 0 0 0 0 0 0 0 0 0 0 0 0 0 0 0 0 0 0 0 0 0 0 0 0 0 0 0 0 0 0 0 0 0 0 0 0 0 0 0 0 0 0 0 0 0 0 0 0 0 0 0 0 0 0 0 0 0 0 0 0 0 0 0 0 0 0 0 0 0 0 0 0 0 0 0 0 0 0 0 0 0 0 0 0 0 0 0 0 0 0 0 0 0 0 0 0 0 0 0 0 0 0 0 0 0 0 0 0 0 0 0 0 0 0 </DataArray>
        <DataArray type="Int64" IdType="1" Name="vtkOriginalCellIds" format="ascii" RangeMin="0" RangeMax="191">0 1 2 3 4 5 6 7 8 9 10 11 12 13 14 15 16 17 18 19 20 21 22 23 24 25 26 27 28 29 30 31 32 33 34 35 36 37 38 39 40 41 42 43 44 45 46 47 48 49 50 51 52 53 54 55 56 57 58 59 60 61 62 63 64 65 66 67 68 69 70 71 72 73 74 75 76 77 78 79 80 81 82 83 84 85 86 87 88 89 90 91 92 93 94 95 96 97 98 99 100 101 102 103 104 105 106 107 108 109 110 111 112 113 114 115 116 117 118 119 120 121 122 123 124 125 126 127 128 129 130 131 132 133 134 135 136 137 138 139 140 141 142 143 144 145 146 147 148 149 150 151 152 153 154 155 156 157 158 159 160 161 162 163 164 165 166 167 168 169 170 171 172 173 174 175 176 177 178 179 180 181 182 183 184 185 186 187 188 189 190 191 </DataArray>
      </CellData>
      <PointData Vectors="f">
        <DataArray type="Int64" IdType="1" Name="vtkOriginalPointIds" format="ascii" RangeMin="0" RangeMax="80">0 1 2 3 4 5 6 7 8 9 10 11 12 13 14 15 16 17 18 19 20 21 22 23 24 25 26 27 28 29 30 31 32 33 34 35 36 37 38 39 40 41 42 43 44 45 46 47 48 49 50 51 52 53 54 55 56 57 58 59 60 61 62 63 64 65 66 67 68 69 70 71 72 73 74 75 76 77 78 79 80 </DataArray>
        <DataArray type="UInt8" Name="vtkGhostType" format="ascii" RangeMin="0" RangeMax="0">0 0 0 0 0 0 0 0 0 0 0 0 0 0 0 0 0 0 0 0 0 0 0 0 0 0 0 0 0 0 0 0 0 0 0 0 0 0 0 0 0 0 0 0 0 0 0 0 0 0 0 0 0 0 0 0 0 0 0 0 0 0 0 0 0 0 0 0 0 0 0 0 0 0 0 0 0 0 0 0 0 </DataArray>
        <DataArray type="Float64" Name="f" format="ascii" NumberOfComponents="3">0 0 0 0 0 0 0 0 0 0.2350013475273174 -2.044718945292211 -0.09130672331475852 0.3312032403862734 -2.023981006645688 -2.16337462741516 0 0 0 0 0 0 0.05845985959649365 -2.57549585421453 1.563931799876581 0.08370042952364866 -1.991007757545239 -1.98228758310737 0.1951615057005069 -2.114163270424758 0.1040705089305129 0 0 0 0.6447433395508636 -6.522091227796508 -1.109916446759786 0 0 0 0.2698188046871933 -2.690462247192087 1.894458280861574 0.6002310377362378 -5.814191371266234 -4.746000715668457 0.6273422499426679 -7.594066270717544 2.242638904651669 0 0 0 0.4027631979940613 -5.828581985381973 -4.366188823984721 0.6373869801842673 -6.628712092578502 -0.7118663402783166 -0.1270953955022643 -1.807735292346274 -1.740360583663999 0.2114006494537858 -2.026580875664546 0.3656503359593722 0 0 0 1.234159187345806 -12.64772276286678 -3.115860069194043 0.8259294006688466 -7.773739776043437 2.735607335081591 0.5854986462040157 -2.638695057342436 2.330540961792936 1.062489777286141 -11.1341122138823 -7.896133709821481 1.353663366236196 -14.41462132570119 1.408967535769026 0.9363701084482291 -11.2253562104022 -7.367700293114261 1.257458421472657 -12.81042868520045 -2.584707096312582 0.2524380971995023 -5.704297163140352 -3.886182190547204 0.6837263248546578 -6.579843513212747 -0.2083402358817494 1.936508299244118 -19.90211008586637 -6.10986438936743 1.542041900692825 -14.64633098614106 2.004572978121086 1.092585685223739 -7.778402789107068 3.336806971743635 1.667763769016366 -17.63091364043057 -11.65025616339189 2.164043755266098 -22.33698584299974 -0.782898894361384 1.602857950032888 -17.80237838882091 -11.03659385240618 1.983241076337418 -20.12493401908315 -5.500630346067 0.8484007219191206 -11.2165385838457 -6.743044339804405 1.32272103144751 -12.86059347073362 -1.95042650560637 2.702315567847922 -27.90404927706971 -9.950576570523555 2.336607254064359 -22.61924474255764 -0.1321426922128343 1.777766006704614 -14.75283759442697 2.703711482170828 2.362838348480065 -25.00847717626007 -15.97041407221847 3.01052092496522 -30.89827683779729 -4.095064495148252 2.347081319590894 -25.24728457131718 -15.31259462538454 2.765074692991895 -28.17709005496695 -9.300171201955903 1.565832277204525 -17.90785648853335 -10.34162472041073 2.05994692378078 -20.2723369523703 -4.804442802550696 3.500831274590227 -36.38272486073397 -14.44401887181505 3.164504491316927 -31.21870057089278 -3.417766357310534 2.54186325205645 -22.81633223414046 0.6074135972067747 3.110519622693833 -33.02810589838997 -20.74626600897048 3.868405839624199 -39.79052822477367 -8.255612496356076 3.134136053296342 -33.31746911428441 -20.06583772574804 3.573831566508991 -36.6906196792516 -13.7728122305294 2.350646311889725 -25.44598013253546 -14.5926877735493 2.84794667852183 -28.40197448765994 -8.583298018067467 4.315076398594485 -45.14342990683716 -19.37722039195207 4.002404715773316 -40.1325113764148 -7.56666949777962 3.339952625467965 -31.48273334852509 -2.671451633916325 3.888007596244592 -41.50169393881612 -25.81980562617519 4.725873277074195 -48.80773164235992 -12.99764148693169 3.943540452297961 -41.82927004202968 -25.12552987241777 4.393840666644604 -45.47075970472594 -18.69552667589517 3.170675306093143 -33.58530978185188 -19.34390892222662 3.659316372935087 -36.96959580408254 -13.05644148910615 5.137082116772802 -54.04029961994756 -24.53265001318521 4.83967129452224 -49.15372656449416 -12.30382286302944 4.14925016735496 -40.43829176092969 -6.829612742746752 4.701044753963534 -50.27852520556679 -31.01983541326236 5.572122581690014 -57.80849735465936 -18.07633062796744 4.767881543675076 -50.6378976071322 -30.31212250835447 5.21713346545125 -54.37364902993532 -23.84164752136059 4.007628461861372 -42.14556477045463 -24.40793151550994 4.479139467518252 -45.78089532536021 -17.98790991407079 5.669402599506006 -58.14006515248794 -17.3845257304339 4.959948088285018 -49.4764600885017 -11.58038426057197 4.844286713950513 -50.98449429707394 -29.58622664499762 5.301892421217537 -54.69091256819507 -23.13341520957298 5.767812698964398 -58.44876969810512 -16.67405202003465 </DataArray>
      </PointData>
    </Piece>
  </UnstructuredGrid>
</VTKFile>
